TITLE="TRIANGLE UPLOAD NEW"
VARIABLES= "X","Y"
ZONE N=3, E=1,F=FEPOINT ET=Triangle
0.0 6.03.0 6.06.0 6.09.0 6.0