TITLE="TRIANGLE UPLOAD NEW"
VARIABLES= "X","Y","Volume Fraction"
ZONE
DataPacking=Block
ZoneType=FETRIANGLE
N=625 E=1152
VARLOCATION=([3]=CELLCENTERED)
0.0 3.0 6.0 9.0 12.0 15.0 18.0 21.0 24.0 27.0 30.0 33.0 36.0 39.0 42.0 45.0 48.0 51.0 54.0 57.0 60.0 63.0 66.0 69.0 72.0 1.5 4.5 7.5 10.5 13.5 16.5 19.5 22.5 25.5 28.5 31.5 34.5 37.5 40.5 43.5 46.5 49.5 52.5 55.5 58.5 61.5 64.5 67.5 70.5 73.5 0.0 3.0 6.0 9.0 12.0 15.0 18.0 21.0 24.0 27.0 30.0 33.0 36.0 39.0 42.0 45.0 48.0 51.0 54.0 57.0 60.0 63.0 66.0 69.0 72.0 1.5 4.5 7.5 10.5 13.5 16.5 19.5 22.5 25.5 28.5 31.5 34.5 37.5 40.5 43.5 46.5 49.5 52.5 55.5 58.5 61.5 64.5 67.5 70.5 73.5 0.0 3.0 6.0 9.0 12.0 15.0 18.0 21.0 24.0 27.0 30.0 33.0 36.0 39.0 42.0 45.0 48.0 51.0 54.0 57.0 60.0 63.0 66.0 69.0 72.0 1.5 4.5 7.5 10.5 13.5 16.5 19.5 22.5 25.5 28.5 31.5 34.5 37.5 40.5 43.5 46.5 49.5 52.5 55.5 58.5 61.5 64.5 67.5 70.5 73.5 0.0 3.0 6.0 9.0 12.0 15.0 18.0 21.0 24.0 27.0 30.0 33.0 36.0 39.0 42.0 45.0 48.0 51.0 54.0 57.0 60.0 63.0 66.0 69.0 72.0 1.5 4.5 7.5 10.5 13.5 16.5 19.5 22.5 25.5 28.5 31.5 34.5 37.5 40.5 43.5 46.5 49.5 52.5 55.5 58.5 61.5 64.5 67.5 70.5 73.5 0.0 3.0 6.0 9.0 12.0 15.0 18.0 21.0 24.0 27.0 30.0 33.0 36.0 39.0 42.0 45.0 48.0 51.0 54.0 57.0 60.0 63.0 66.0 69.0 72.0 1.5 4.5 7.5 10.5 13.5 16.5 19.5 22.5 25.5 28.5 31.5 34.5 37.5 40.5 43.5 46.5 49.5 52.5 55.5 58.5 61.5 64.5 67.5 70.5 73.5 0.0 3.0 6.0 9.0 12.0 15.0 18.0 21.0 24.0 27.0 30.0 33.0 36.0 39.0 42.0 45.0 48.0 51.0 54.0 57.0 60.0 63.0 66.0 69.0 72.0 1.5 4.5 7.5 10.5 13.5 16.5 19.5 22.5 25.5 28.5 31.5 34.5 37.5 40.5 43.5 46.5 49.5 52.5 55.5 58.5 61.5 64.5 67.5 70.5 73.5 0.0 3.0 6.0 9.0 12.0 15.0 18.0 21.0 24.0 27.0 30.0 33.0 36.0 39.0 42.0 45.0 48.0 51.0 54.0 57.0 60.0 63.0 66.0 69.0 72.0 1.5 4.5 7.5 10.5 13.5 16.5 19.5 22.5 25.5 28.5 31.5 34.5 37.5 40.5 43.5 46.5 49.5 52.5 55.5 58.5 61.5 64.5 67.5 70.5 73.5 0.0 3.0 6.0 9.0 12.0 15.0 18.0 21.0 24.0 27.0 30.0 33.0 36.0 39.0 42.0 45.0 48.0 51.0 54.0 57.0 60.0 63.0 66.0 69.0 72.0 1.5 4.5 7.5 10.5 13.5 16.5 19.5 22.5 25.5 28.5 31.5 34.5 37.5 40.5 43.5 46.5 49.5 52.5 55.5 58.5 61.5 64.5 67.5 70.5 73.5 0.0 3.0 6.0 9.0 12.0 15.0 18.0 21.0 24.0 27.0 30.0 33.0 36.0 39.0 42.0 45.0 48.0 51.0 54.0 57.0 60.0 63.0 66.0 69.0 72.0 1.5 4.5 7.5 10.5 13.5 16.5 19.5 22.5 25.5 28.5 31.5 34.5 37.5 40.5 43.5 46.5 49.5 52.5 55.5 58.5 61.5 64.5 67.5 70.5 73.5 0.0 3.0 6.0 9.0 12.0 15.0 18.0 21.0 24.0 27.0 30.0 33.0 36.0 39.0 42.0 45.0 48.0 51.0 54.0 57.0 60.0 63.0 66.0 69.0 72.0 1.5 4.5 7.5 10.5 13.5 16.5 19.5 22.5 25.5 28.5 31.5 34.5 37.5 40.5 43.5 46.5 49.5 52.5 55.5 58.5 61.5 64.5 67.5 70.5 73.5 0.0 3.0 6.0 9.0 12.0 15.0 18.0 21.0 24.0 27.0 30.0 33.0 36.0 39.0 42.0 45.0 48.0 51.0 54.0 57.0 60.0 63.0 66.0 69.0 72.0 1.5 4.5 7.5 10.5 13.5 16.5 19.5 22.5 25.5 28.5 31.5 34.5 37.5 40.5 43.5 46.5 49.5 52.5 55.5 58.5 61.5 64.5 67.5 70.5 73.5 0.0 3.0 6.0 9.0 12.0 15.0 18.0 21.0 24.0 27.0 30.0 33.0 36.0 39.0 42.0 45.0 48.0 51.0 54.0 57.0 60.0 63.0 66.0 69.0 72.0 1.5 4.5 7.5 10.5 13.5 16.5 19.5 22.5 25.5 28.5 31.5 34.5 37.5 40.5 43.5 46.5 49.5 52.5 55.5 58.5 61.5 64.5 67.5 70.5 73.5 0.0 3.0 6.0 9.0 12.0 15.0 18.0 21.0 24.0 27.0 30.0 33.0 36.0 39.0 42.0 45.0 48.0 51.0 54.0 57.0 60.0 63.0 66.0 69.0 72.0 
0.0 0.0 0.0 0.0 0.0 0.0 0.0 0.0 0.0 0.0 0.0 0.0 0.0 0.0 0.0 0.0 0.0 0.0 0.0 0.0 0.0 0.0 0.0 0.0 0.0 3.0 3.0 3.0 3.0 3.0 3.0 3.0 3.0 3.0 3.0 3.0 3.0 3.0 3.0 3.0 3.0 3.0 3.0 3.0 3.0 3.0 3.0 3.0 3.0 3.0 6.0 6.0 6.0 6.0 6.0 6.0 6.0 6.0 6.0 6.0 6.0 6.0 6.0 6.0 6.0 6.0 6.0 6.0 6.0 6.0 6.0 6.0 6.0 6.0 6.0 9.0 9.0 9.0 9.0 9.0 9.0 9.0 9.0 9.0 9.0 9.0 9.0 9.0 9.0 9.0 9.0 9.0 9.0 9.0 9.0 9.0 9.0 9.0 9.0 9.0 12.0 12.0 12.0 12.0 12.0 12.0 12.0 12.0 12.0 12.0 12.0 12.0 12.0 12.0 12.0 12.0 12.0 12.0 12.0 12.0 12.0 12.0 12.0 12.0 12.0 15.0 15.0 15.0 15.0 15.0 15.0 15.0 15.0 15.0 15.0 15.0 15.0 15.0 15.0 15.0 15.0 15.0 15.0 15.0 15.0 15.0 15.0 15.0 15.0 15.0 18.0 18.0 18.0 18.0 18.0 18.0 18.0 18.0 18.0 18.0 18.0 18.0 18.0 18.0 18.0 18.0 18.0 18.0 18.0 18.0 18.0 18.0 18.0 18.0 18.0 21.0 21.0 21.0 21.0 21.0 21.0 21.0 21.0 21.0 21.0 21.0 21.0 21.0 21.0 21.0 21.0 21.0 21.0 21.0 21.0 21.0 21.0 21.0 21.0 21.0 24.0 24.0 24.0 24.0 24.0 24.0 24.0 24.0 24.0 24.0 24.0 24.0 24.0 24.0 24.0 24.0 24.0 24.0 24.0 24.0 24.0 24.0 24.0 24.0 24.0 27.0 27.0 27.0 27.0 27.0 27.0 27.0 27.0 27.0 27.0 27.0 27.0 27.0 27.0 27.0 27.0 27.0 27.0 27.0 27.0 27.0 27.0 27.0 27.0 27.0 30.0 30.0 30.0 30.0 30.0 30.0 30.0 30.0 30.0 30.0 30.0 30.0 30.0 30.0 30.0 30.0 30.0 30.0 30.0 30.0 30.0 30.0 30.0 30.0 30.0 33.0 33.0 33.0 33.0 33.0 33.0 33.0 33.0 33.0 33.0 33.0 33.0 33.0 33.0 33.0 33.0 33.0 33.0 33.0 33.0 33.0 33.0 33.0 33.0 33.0 36.0 36.0 36.0 36.0 36.0 36.0 36.0 36.0 36.0 36.0 36.0 36.0 36.0 36.0 36.0 36.0 36.0 36.0 36.0 36.0 36.0 36.0 36.0 36.0 36.0 39.0 39.0 39.0 39.0 39.0 39.0 39.0 39.0 39.0 39.0 39.0 39.0 39.0 39.0 39.0 39.0 39.0 39.0 39.0 39.0 39.0 39.0 39.0 39.0 39.0 42.0 42.0 42.0 42.0 42.0 42.0 42.0 42.0 42.0 42.0 42.0 42.0 42.0 42.0 42.0 42.0 42.0 42.0 42.0 42.0 42.0 42.0 42.0 42.0 42.0 45.0 45.0 45.0 45.0 45.0 45.0 45.0 45.0 45.0 45.0 45.0 45.0 45.0 45.0 45.0 45.0 45.0 45.0 45.0 45.0 45.0 45.0 45.0 45.0 45.0 48.0 48.0 48.0 48.0 48.0 48.0 48.0 48.0 48.0 48.0 48.0 48.0 48.0 48.0 48.0 48.0 48.0 48.0 48.0 48.0 48.0 48.0 48.0 48.0 48.0 51.0 51.0 51.0 51.0 51.0 51.0 51.0 51.0 51.0 51.0 51.0 51.0 51.0 51.0 51.0 51.0 51.0 51.0 51.0 51.0 51.0 51.0 51.0 51.0 51.0 54.0 54.0 54.0 54.0 54.0 54.0 54.0 54.0 54.0 54.0 54.0 54.0 54.0 54.0 54.0 54.0 54.0 54.0 54.0 54.0 54.0 54.0 54.0 54.0 54.0 57.0 57.0 57.0 57.0 57.0 57.0 57.0 57.0 57.0 57.0 57.0 57.0 57.0 57.0 57.0 57.0 57.0 57.0 57.0 57.0 57.0 57.0 57.0 57.0 57.0 60.0 60.0 60.0 60.0 60.0 60.0 60.0 60.0 60.0 60.0 60.0 60.0 60.0 60.0 60.0 60.0 60.0 60.0 60.0 60.0 60.0 60.0 60.0 60.0 60.0 63.0 63.0 63.0 63.0 63.0 63.0 63.0 63.0 63.0 63.0 63.0 63.0 63.0 63.0 63.0 63.0 63.0 63.0 63.0 63.0 63.0 63.0 63.0 63.0 63.0 66.0 66.0 66.0 66.0 66.0 66.0 66.0 66.0 66.0 66.0 66.0 66.0 66.0 66.0 66.0 66.0 66.0 66.0 66.0 66.0 66.0 66.0 66.0 66.0 66.0 69.0 69.0 69.0 69.0 69.0 69.0 69.0 69.0 69.0 69.0 69.0 69.0 69.0 69.0 69.0 69.0 69.0 69.0 69.0 69.0 69.0 69.0 69.0 69.0 69.0 72.0 72.0 72.0 72.0 72.0 72.0 72.0 72.0 72.0 72.0 72.0 72.0 72.0 72.0 72.0 72.0 72.0 72.0 72.0 72.0 72.0 72.0 72.0 72.0 72.0 
0 0 0 0 0 0 0 0 0 0 0 0 0 0 0 0 0 0 0 0 0 0 0 0 0 0 0 0 0 0 0 0 0 0 0 0 0 0 0 0 0 0 0 0 0 0 0 0 0 0 0 0 0 0 0 0 0 0 0 0 0 0 0 0 0 0 0 0 0 0 0 0 0 0 0 0 0 0 0 0 0 0 0 0 0 0 0 0 0 0 0 0 0 0 0 0 0 0 0 0 0 0 0 0 0 0 0 0 0 0 0 0 0 0 0 0 0 0 0 0 0 0 0 0 0 0 0 0 0 0 0 0 0 0 0 0 0 0 0 0 0 0 0 0 0 0 0 0 0 0 0 0 0 0 0 0 0 0 0 0 0 0 0 0 0 0 0 0 0 0 0 0 0 0 0 0 0 0 0 0 0 0 0 0 0 0 0 0 0 0 0 0 0 0 0 0 0 0 0 0 0 0 0 0 0 0 0 0 0 0 0 0 0 0 0 0 0 0 0 0 0 0 0 0 0 0 0 0 0 0 0 0 0 0 0 0 0 0 0 0 0 0 0 0 0 0 0 0 0 0 0 0 0 0 0 0 0 0 0 0 0 0 0 0 0 0 0 0 0 0 0 0 0 0 0 0 0 0 0 0 0 0 0 0 0 0 0 0 0 0 0 0 0 0 0 0 0 0 0 0 0 0 0 0 0 0 0 0 0 0 0 0 0 0 0 0 0 0 0 0 0 0 0 0 0 0 0 0 0 0 0 0 0 0 0 0 0 0 0 0 0 0 0 0 0 0 0 0 0 0 0 0 0 0 0 0 0 0 0 0 0 0 0 0 0 0 0 0 0 0 0 0 0 0 0 0 0 0 0 0 0 0 0 0 0 0 0 0 0 0 0 0 0 0 0 0 0 0 0 0 0 0 0 0 0 0.07332536834482209 0.03295623730439532 0.4911275719194967 0.11020179769816783 0.4911275719194967 0.03295623730439532 0.07332536834482209 0 0 0 0 0 0 0 0 0 0 0 0 0 0 0 0 0 0 0 0 0 0 0 0 0 0 0 0 0 0 0 0 0 0 0 0 0 0 0.02176756551575061 0.058138253076786724 0.8659455561471048 0.8715854155271406 1 1 1 1 1 0.8715854155271406 0.8659455561471048 0.05813825307678622 0.021767565515750535 0 0 0 0 0 0 0 0 0 0 0 0 0 0 0 0 0 0 0 0 0 0 0 0 0 0 0 0 0 0 0 0 0 0 0.0385125775958988 0.3795618041019134 1 1 1 1 1 1 1 1 1 1 1 0.3795618041019134 0.0385125775958988 0 0 0 0 0 0 0 0 0 0 0 0 0 0 0 0 0 0 0 0 0 0 0 0 0 0 0 0 0 0 0 0 0 0.12524254339424098 0.940028728166661 1 1 1 1 1 1 1 1 1 1 1 0.940028728166661 0.12524254339424098 0 0 0 0 0 0 0 0 0 0 0 0 0 0 0 0 0 0 0 0 0 0 0 0 0 0 0 0 0 0 0 0 0 0.12524254339424098 0.940028728166661 1 1 1 1 1 1 1 1 1 1 1 0.940028728166661 0.12524254339424098 0 0 0 0 0 0 0 0 0 0 0 0 0 0 0 0 0 0 0 0 0 0 0 0 0 0 0 0 0 0 0 0 0 0.0385125775958988 0.3795618041019134 1 1 1 1 1 1 1 1 1 1 1 0.3795618041019134 0.0385125775958988 0 0 0 0 0 0 0 0 0 0 0 0 0 0 0 0 0 0 0 0 0 0 0 0 0 0 0 0 0 0 0 0 0 0 0.02176756551575061 0.05813825307678663 0.8659455561471068 0.8715854155271406 1 1 1 1 1 0.8715854155271406 0.8659455561471068 0.05813825307678614 0.021767565515750535 0 0 0 0 0 0 0 0 0 0 0 0 0 0 0 0 0 0 0 0 0 0 0 0 0 0 0 0 0 0 0 0 0 0 0 0 0 0 0.07332536834482209 0.032956237304395224 0.4911275719194968 0.11020179769816824 0.4911275719194968 0.032956237304395224 0.07332536834482209 0 0 0 0 0 0 0 0 0 0 0 0 0 0 0 0 0 0 0 0 0 0 0 0 0 0 0 0 0 0 0 0 0 0 0 0 0 0 0 0 0 0 0 0 0 0 0 0 0 0 0 0 0 0 0 0 0 0 0 0 0 0 0 0 0 0 0 0 0 0 0 0 0 0 0 0 0 0 0 0 0 0 0 0 0 0 0 0 0 0 0 0 0 0 0 0 0 0 0 0 0 0 0 0 0 0 0 0 0 0 0 0 0 0 0 0 0 0 0 0 0 0 0 0 0 0 0 0 0 0 0 0 0 0 0 0 0 0 0 0 0 0 0 0 0 0 0 0 0 0 0 0 0 0 0 0 0 0 0 0 0 0 0 0 0 0 0 0 0 0 0 0 0 0 0 0 0 0 0 0 0 0 0 0 0 0 0 0 0 0 0 0 0 0 0 0 0 0 0 0 0 0 0 0 0 0 0 0 0 0 0 0 0 0 0 0 0 0 0 0 0 0 0 0 0 0 0 0 0 0 0 0 0 0 0 0 0 0 0 0 0 0 0 0 0 0 0 0 0 0 0 0 0 0 0 0 0 0 0 0 0 0 0 0 0 0 0 0 0 0 0 0 0 0 0 0 0 0 0 0 0 0 0 0 0 0 0 0 0 0 0 0 0 0 0 0 0 0 0 0 0 0 0 0 0 0 0 0 0 0 0 0 0 0 0 0 0 0 0 0 0 0 0 0 0 0 0 0 0 0 0 0 0 0 0 0 0 0 0 0 0 0 0 0 0 0 0 0 0 0 0 0 0 0 0 0 0 0 0 0 0 0 0 0 0 0 0 0 0 0 0 0 0 0 0 0 0 0 0 0 0 0 0 0 0 0 0 0 0 0 0 0 0 0 0 0 0 0 0 0 0 0 0 0 
1 2 26 
2 26 27 
2 3 27 
3 27 28 
3 4 28 
4 28 29 
4 5 29 
5 29 30 
5 6 30 
6 30 31 
6 7 31 
7 31 32 
7 8 32 
8 32 33 
8 9 33 
9 33 34 
9 10 34 
10 34 35 
10 11 35 
11 35 36 
11 12 36 
12 36 37 
12 13 37 
13 37 38 
13 14 38 
14 38 39 
14 15 39 
15 39 40 
15 16 40 
16 40 41 
16 17 41 
17 41 42 
17 18 42 
18 42 43 
18 19 43 
19 43 44 
19 20 44 
20 44 45 
20 21 45 
21 45 46 
21 22 46 
22 46 47 
22 23 47 
23 47 48 
23 24 48 
24 48 49 
24 25 49 
25 49 50 
26 51 52 
26 27 52 
27 52 53 
27 28 53 
28 53 54 
28 29 54 
29 54 55 
29 30 55 
30 55 56 
30 31 56 
31 56 57 
31 32 57 
32 57 58 
32 33 58 
33 58 59 
33 34 59 
34 59 60 
34 35 60 
35 60 61 
35 36 61 
36 61 62 
36 37 62 
37 62 63 
37 38 63 
38 63 64 
38 39 64 
39 64 65 
39 40 65 
40 65 66 
40 41 66 
41 66 67 
41 42 67 
42 67 68 
42 43 68 
43 68 69 
43 44 69 
44 69 70 
44 45 70 
45 70 71 
45 46 71 
46 71 72 
46 47 72 
47 72 73 
47 48 73 
48 73 74 
48 49 74 
49 74 75 
49 50 75 
51 52 76 
52 76 77 
52 53 77 
53 77 78 
53 54 78 
54 78 79 
54 55 79 
55 79 80 
55 56 80 
56 80 81 
56 57 81 
57 81 82 
57 58 82 
58 82 83 
58 59 83 
59 83 84 
59 60 84 
60 84 85 
60 61 85 
61 85 86 
61 62 86 
62 86 87 
62 63 87 
63 87 88 
63 64 88 
64 88 89 
64 65 89 
65 89 90 
65 66 90 
66 90 91 
66 67 91 
67 91 92 
67 68 92 
68 92 93 
68 69 93 
69 93 94 
69 70 94 
70 94 95 
70 71 95 
71 95 96 
71 72 96 
72 96 97 
72 73 97 
73 97 98 
73 74 98 
74 98 99 
74 75 99 
75 99 100 
76 101 102 
76 77 102 
77 102 103 
77 78 103 
78 103 104 
78 79 104 
79 104 105 
79 80 105 
80 105 106 
80 81 106 
81 106 107 
81 82 107 
82 107 108 
82 83 108 
83 108 109 
83 84 109 
84 109 110 
84 85 110 
85 110 111 
85 86 111 
86 111 112 
86 87 112 
87 112 113 
87 88 113 
88 113 114 
88 89 114 
89 114 115 
89 90 115 
90 115 116 
90 91 116 
91 116 117 
91 92 117 
92 117 118 
92 93 118 
93 118 119 
93 94 119 
94 119 120 
94 95 120 
95 120 121 
95 96 121 
96 121 122 
96 97 122 
97 122 123 
97 98 123 
98 123 124 
98 99 124 
99 124 125 
99 100 125 
101 102 126 
102 126 127 
102 103 127 
103 127 128 
103 104 128 
104 128 129 
104 105 129 
105 129 130 
105 106 130 
106 130 131 
106 107 131 
107 131 132 
107 108 132 
108 132 133 
108 109 133 
109 133 134 
109 110 134 
110 134 135 
110 111 135 
111 135 136 
111 112 136 
112 136 137 
112 113 137 
113 137 138 
113 114 138 
114 138 139 
114 115 139 
115 139 140 
115 116 140 
116 140 141 
116 117 141 
117 141 142 
117 118 142 
118 142 143 
118 119 143 
119 143 144 
119 120 144 
120 144 145 
120 121 145 
121 145 146 
121 122 146 
122 146 147 
122 123 147 
123 147 148 
123 124 148 
124 148 149 
124 125 149 
125 149 150 
126 151 152 
126 127 152 
127 152 153 
127 128 153 
128 153 154 
128 129 154 
129 154 155 
129 130 155 
130 155 156 
130 131 156 
131 156 157 
131 132 157 
132 157 158 
132 133 158 
133 158 159 
133 134 159 
134 159 160 
134 135 160 
135 160 161 
135 136 161 
136 161 162 
136 137 162 
137 162 163 
137 138 163 
138 163 164 
138 139 164 
139 164 165 
139 140 165 
140 165 166 
140 141 166 
141 166 167 
141 142 167 
142 167 168 
142 143 168 
143 168 169 
143 144 169 
144 169 170 
144 145 170 
145 170 171 
145 146 171 
146 171 172 
146 147 172 
147 172 173 
147 148 173 
148 173 174 
148 149 174 
149 174 175 
149 150 175 
151 152 176 
152 176 177 
152 153 177 
153 177 178 
153 154 178 
154 178 179 
154 155 179 
155 179 180 
155 156 180 
156 180 181 
156 157 181 
157 181 182 
157 158 182 
158 182 183 
158 159 183 
159 183 184 
159 160 184 
160 184 185 
160 161 185 
161 185 186 
161 162 186 
162 186 187 
162 163 187 
163 187 188 
163 164 188 
164 188 189 
164 165 189 
165 189 190 
165 166 190 
166 190 191 
166 167 191 
167 191 192 
167 168 192 
168 192 193 
168 169 193 
169 193 194 
169 170 194 
170 194 195 
170 171 195 
171 195 196 
171 172 196 
172 196 197 
172 173 197 
173 197 198 
173 174 198 
174 198 199 
174 175 199 
175 199 200 
176 201 202 
176 177 202 
177 202 203 
177 178 203 
178 203 204 
178 179 204 
179 204 205 
179 180 205 
180 205 206 
180 181 206 
181 206 207 
181 182 207 
182 207 208 
182 183 208 
183 208 209 
183 184 209 
184 209 210 
184 185 210 
185 210 211 
185 186 211 
186 211 212 
186 187 212 
187 212 213 
187 188 213 
188 213 214 
188 189 214 
189 214 215 
189 190 215 
190 215 216 
190 191 216 
191 216 217 
191 192 217 
192 217 218 
192 193 218 
193 218 219 
193 194 219 
194 219 220 
194 195 220 
195 220 221 
195 196 221 
196 221 222 
196 197 222 
197 222 223 
197 198 223 
198 223 224 
198 199 224 
199 224 225 
199 200 225 
201 202 226 
202 226 227 
202 203 227 
203 227 228 
203 204 228 
204 228 229 
204 205 229 
205 229 230 
205 206 230 
206 230 231 
206 207 231 
207 231 232 
207 208 232 
208 232 233 
208 209 233 
209 233 234 
209 210 234 
210 234 235 
210 211 235 
211 235 236 
211 212 236 
212 236 237 
212 213 237 
213 237 238 
213 214 238 
214 238 239 
214 215 239 
215 239 240 
215 216 240 
216 240 241 
216 217 241 
217 241 242 
217 218 242 
218 242 243 
218 219 243 
219 243 244 
219 220 244 
220 244 245 
220 221 245 
221 245 246 
221 222 246 
222 246 247 
222 223 247 
223 247 248 
223 224 248 
224 248 249 
224 225 249 
225 249 250 
226 251 252 
226 227 252 
227 252 253 
227 228 253 
228 253 254 
228 229 254 
229 254 255 
229 230 255 
230 255 256 
230 231 256 
231 256 257 
231 232 257 
232 257 258 
232 233 258 
233 258 259 
233 234 259 
234 259 260 
234 235 260 
235 260 261 
235 236 261 
236 261 262 
236 237 262 
237 262 263 
237 238 263 
238 263 264 
238 239 264 
239 264 265 
239 240 265 
240 265 266 
240 241 266 
241 266 267 
241 242 267 
242 267 268 
242 243 268 
243 268 269 
243 244 269 
244 269 270 
244 245 270 
245 270 271 
245 246 271 
246 271 272 
246 247 272 
247 272 273 
247 248 273 
248 273 274 
248 249 274 
249 274 275 
249 250 275 
251 252 276 
252 276 277 
252 253 277 
253 277 278 
253 254 278 
254 278 279 
254 255 279 
255 279 280 
255 256 280 
256 280 281 
256 257 281 
257 281 282 
257 258 282 
258 282 283 
258 259 283 
259 283 284 
259 260 284 
260 284 285 
260 261 285 
261 285 286 
261 262 286 
262 286 287 
262 263 287 
263 287 288 
263 264 288 
264 288 289 
264 265 289 
265 289 290 
265 266 290 
266 290 291 
266 267 291 
267 291 292 
267 268 292 
268 292 293 
268 269 293 
269 293 294 
269 270 294 
270 294 295 
270 271 295 
271 295 296 
271 272 296 
272 296 297 
272 273 297 
273 297 298 
273 274 298 
274 298 299 
274 275 299 
275 299 300 
276 301 302 
276 277 302 
277 302 303 
277 278 303 
278 303 304 
278 279 304 
279 304 305 
279 280 305 
280 305 306 
280 281 306 
281 306 307 
281 282 307 
282 307 308 
282 283 308 
283 308 309 
283 284 309 
284 309 310 
284 285 310 
285 310 311 
285 286 311 
286 311 312 
286 287 312 
287 312 313 
287 288 313 
288 313 314 
288 289 314 
289 314 315 
289 290 315 
290 315 316 
290 291 316 
291 316 317 
291 292 317 
292 317 318 
292 293 318 
293 318 319 
293 294 319 
294 319 320 
294 295 320 
295 320 321 
295 296 321 
296 321 322 
296 297 322 
297 322 323 
297 298 323 
298 323 324 
298 299 324 
299 324 325 
299 300 325 
301 302 326 
302 326 327 
302 303 327 
303 327 328 
303 304 328 
304 328 329 
304 305 329 
305 329 330 
305 306 330 
306 330 331 
306 307 331 
307 331 332 
307 308 332 
308 332 333 
308 309 333 
309 333 334 
309 310 334 
310 334 335 
310 311 335 
311 335 336 
311 312 336 
312 336 337 
312 313 337 
313 337 338 
313 314 338 
314 338 339 
314 315 339 
315 339 340 
315 316 340 
316 340 341 
316 317 341 
317 341 342 
317 318 342 
318 342 343 
318 319 343 
319 343 344 
319 320 344 
320 344 345 
320 321 345 
321 345 346 
321 322 346 
322 346 347 
322 323 347 
323 347 348 
323 324 348 
324 348 349 
324 325 349 
325 349 350 
326 351 352 
326 327 352 
327 352 353 
327 328 353 
328 353 354 
328 329 354 
329 354 355 
329 330 355 
330 355 356 
330 331 356 
331 356 357 
331 332 357 
332 357 358 
332 333 358 
333 358 359 
333 334 359 
334 359 360 
334 335 360 
335 360 361 
335 336 361 
336 361 362 
336 337 362 
337 362 363 
337 338 363 
338 363 364 
338 339 364 
339 364 365 
339 340 365 
340 365 366 
340 341 366 
341 366 367 
341 342 367 
342 367 368 
342 343 368 
343 368 369 
343 344 369 
344 369 370 
344 345 370 
345 370 371 
345 346 371 
346 371 372 
346 347 372 
347 372 373 
347 348 373 
348 373 374 
348 349 374 
349 374 375 
349 350 375 
351 352 376 
352 376 377 
352 353 377 
353 377 378 
353 354 378 
354 378 379 
354 355 379 
355 379 380 
355 356 380 
356 380 381 
356 357 381 
357 381 382 
357 358 382 
358 382 383 
358 359 383 
359 383 384 
359 360 384 
360 384 385 
360 361 385 
361 385 386 
361 362 386 
362 386 387 
362 363 387 
363 387 388 
363 364 388 
364 388 389 
364 365 389 
365 389 390 
365 366 390 
366 390 391 
366 367 391 
367 391 392 
367 368 392 
368 392 393 
368 369 393 
369 393 394 
369 370 394 
370 394 395 
370 371 395 
371 395 396 
371 372 396 
372 396 397 
372 373 397 
373 397 398 
373 374 398 
374 398 399 
374 375 399 
375 399 400 
376 401 402 
376 377 402 
377 402 403 
377 378 403 
378 403 404 
378 379 404 
379 404 405 
379 380 405 
380 405 406 
380 381 406 
381 406 407 
381 382 407 
382 407 408 
382 383 408 
383 408 409 
383 384 409 
384 409 410 
384 385 410 
385 410 411 
385 386 411 
386 411 412 
386 387 412 
387 412 413 
387 388 413 
388 413 414 
388 389 414 
389 414 415 
389 390 415 
390 415 416 
390 391 416 
391 416 417 
391 392 417 
392 417 418 
392 393 418 
393 418 419 
393 394 419 
394 419 420 
394 395 420 
395 420 421 
395 396 421 
396 421 422 
396 397 422 
397 422 423 
397 398 423 
398 423 424 
398 399 424 
399 424 425 
399 400 425 
401 402 426 
402 426 427 
402 403 427 
403 427 428 
403 404 428 
404 428 429 
404 405 429 
405 429 430 
405 406 430 
406 430 431 
406 407 431 
407 431 432 
407 408 432 
408 432 433 
408 409 433 
409 433 434 
409 410 434 
410 434 435 
410 411 435 
411 435 436 
411 412 436 
412 436 437 
412 413 437 
413 437 438 
413 414 438 
414 438 439 
414 415 439 
415 439 440 
415 416 440 
416 440 441 
416 417 441 
417 441 442 
417 418 442 
418 442 443 
418 419 443 
419 443 444 
419 420 444 
420 444 445 
420 421 445 
421 445 446 
421 422 446 
422 446 447 
422 423 447 
423 447 448 
423 424 448 
424 448 449 
424 425 449 
425 449 450 
426 451 452 
426 427 452 
427 452 453 
427 428 453 
428 453 454 
428 429 454 
429 454 455 
429 430 455 
430 455 456 
430 431 456 
431 456 457 
431 432 457 
432 457 458 
432 433 458 
433 458 459 
433 434 459 
434 459 460 
434 435 460 
435 460 461 
435 436 461 
436 461 462 
436 437 462 
437 462 463 
437 438 463 
438 463 464 
438 439 464 
439 464 465 
439 440 465 
440 465 466 
440 441 466 
441 466 467 
441 442 467 
442 467 468 
442 443 468 
443 468 469 
443 444 469 
444 469 470 
444 445 470 
445 470 471 
445 446 471 
446 471 472 
446 447 472 
447 472 473 
447 448 473 
448 473 474 
448 449 474 
449 474 475 
449 450 475 
451 452 476 
452 476 477 
452 453 477 
453 477 478 
453 454 478 
454 478 479 
454 455 479 
455 479 480 
455 456 480 
456 480 481 
456 457 481 
457 481 482 
457 458 482 
458 482 483 
458 459 483 
459 483 484 
459 460 484 
460 484 485 
460 461 485 
461 485 486 
461 462 486 
462 486 487 
462 463 487 
463 487 488 
463 464 488 
464 488 489 
464 465 489 
465 489 490 
465 466 490 
466 490 491 
466 467 491 
467 491 492 
467 468 492 
468 492 493 
468 469 493 
469 493 494 
469 470 494 
470 494 495 
470 471 495 
471 495 496 
471 472 496 
472 496 497 
472 473 497 
473 497 498 
473 474 498 
474 498 499 
474 475 499 
475 499 500 
476 501 502 
476 477 502 
477 502 503 
477 478 503 
478 503 504 
478 479 504 
479 504 505 
479 480 505 
480 505 506 
480 481 506 
481 506 507 
481 482 507 
482 507 508 
482 483 508 
483 508 509 
483 484 509 
484 509 510 
484 485 510 
485 510 511 
485 486 511 
486 511 512 
486 487 512 
487 512 513 
487 488 513 
488 513 514 
488 489 514 
489 514 515 
489 490 515 
490 515 516 
490 491 516 
491 516 517 
491 492 517 
492 517 518 
492 493 518 
493 518 519 
493 494 519 
494 519 520 
494 495 520 
495 520 521 
495 496 521 
496 521 522 
496 497 522 
497 522 523 
497 498 523 
498 523 524 
498 499 524 
499 524 525 
499 500 525 
501 502 526 
502 526 527 
502 503 527 
503 527 528 
503 504 528 
504 528 529 
504 505 529 
505 529 530 
505 506 530 
506 530 531 
506 507 531 
507 531 532 
507 508 532 
508 532 533 
508 509 533 
509 533 534 
509 510 534 
510 534 535 
510 511 535 
511 535 536 
511 512 536 
512 536 537 
512 513 537 
513 537 538 
513 514 538 
514 538 539 
514 515 539 
515 539 540 
515 516 540 
516 540 541 
516 517 541 
517 541 542 
517 518 542 
518 542 543 
518 519 543 
519 543 544 
519 520 544 
520 544 545 
520 521 545 
521 545 546 
521 522 546 
522 546 547 
522 523 547 
523 547 548 
523 524 548 
524 548 549 
524 525 549 
525 549 550 
526 551 552 
526 527 552 
527 552 553 
527 528 553 
528 553 554 
528 529 554 
529 554 555 
529 530 555 
530 555 556 
530 531 556 
531 556 557 
531 532 557 
532 557 558 
532 533 558 
533 558 559 
533 534 559 
534 559 560 
534 535 560 
535 560 561 
535 536 561 
536 561 562 
536 537 562 
537 562 563 
537 538 563 
538 563 564 
538 539 564 
539 564 565 
539 540 565 
540 565 566 
540 541 566 
541 566 567 
541 542 567 
542 567 568 
542 543 568 
543 568 569 
543 544 569 
544 569 570 
544 545 570 
545 570 571 
545 546 571 
546 571 572 
546 547 572 
547 572 573 
547 548 573 
548 573 574 
548 549 574 
549 574 575 
549 550 575 
551 552 576 
552 576 577 
552 553 577 
553 577 578 
553 554 578 
554 578 579 
554 555 579 
555 579 580 
555 556 580 
556 580 581 
556 557 581 
557 581 582 
557 558 582 
558 582 583 
558 559 583 
559 583 584 
559 560 584 
560 584 585 
560 561 585 
561 585 586 
561 562 586 
562 586 587 
562 563 587 
563 587 588 
563 564 588 
564 588 589 
564 565 589 
565 589 590 
565 566 590 
566 590 591 
566 567 591 
567 591 592 
567 568 592 
568 592 593 
568 569 593 
569 593 594 
569 570 594 
570 594 595 
570 571 595 
571 595 596 
571 572 596 
572 596 597 
572 573 597 
573 597 598 
573 574 598 
574 598 599 
574 575 599 
575 599 600 
576 601 602 
576 577 602 
577 602 603 
577 578 603 
578 603 604 
578 579 604 
579 604 605 
579 580 605 
580 605 606 
580 581 606 
581 606 607 
581 582 607 
582 607 608 
582 583 608 
583 608 609 
583 584 609 
584 609 610 
584 585 610 
585 610 611 
585 586 611 
586 611 612 
586 587 612 
587 612 613 
587 588 613 
588 613 614 
588 589 614 
589 614 615 
589 590 615 
590 615 616 
590 591 616 
591 616 617 
591 592 617 
592 617 618 
592 593 618 
593 618 619 
593 594 619 
594 619 620 
594 595 620 
595 620 621 
595 596 621 
596 621 622 
596 597 622 
597 622 623 
597 598 623 
598 623 624 
598 599 624 
599 624 625 
599 600 625 
